<?xml version="1.0" encoding="UTF-8"?>

<!-- generated on Sun Dec 13 13:42:10 2020 by Eclipse SUMO GUI Version 1.8.0
<configuration xmlns:xsi="http://www.w3.org/2001/XMLSchema-instance" xsi:noNamespaceSchemaLocation="http://sumo.dlr.de/xsd/sumoConfiguration.xsd">

    <input>
        <net-file value="/Users/Matteo/PycharmProjects/TrafficEmu/cambridge-osm-simulation/osm.net.xml"/>
        <route-files value="/Users/Matteo/PycharmProjects/TrafficEmu/cambridge-osm-simulation/osm.passenger.trips.xml"/>
        <additional-files value="/Users/Matteo/PycharmProjects/TrafficEmu/cambridge-osm-simulation/osm.poly.xml"/>
    </input>

    <output>
        <tripinfo-output value="/Users/Matteo/PycharmProjects/TrafficEmu/cambridge-osm-simulation/output-files/tripinfo.xml"/>
        <statistic-output value="/Users/Matteo/PycharmProjects/TrafficEmu/cambridge-osm-simulation/output-files/statistics_output.xml"/>
    </output>

    <processing>
        <ignore-route-errors value="true"/>
    </processing>

    <routing>
        <device.rerouting.adaptation-steps value="18"/>
        <device.rerouting.adaptation-interval value="10"/>
    </routing>

    <report>
        <verbose value="true"/>
        <duration-log.statistics value="true"/>
        <no-step-log value="true"/>
    </report>

    <traci_server>
        <remote-port value="61308"/>
    </traci_server>

    <random_number>
        <seed value="42"/>
    </random_number>

    <gui_only>
        <gui-settings-file value="/Users/Matteo/PycharmProjects/TrafficEmu/custom_sumo_gui_view.xml"/>
        <quit-on-end value="true"/>
        <start value="true"/>
        <delay value="100"/>
    </gui_only>

</configuration>
-->

<tripinfos xmlns:xsi="http://www.w3.org/2001/XMLSchema-instance" xsi:noNamespaceSchemaLocation="http://sumo.dlr.de/xsd/tripinfo_file.xsd">
    <tripinfo id="veh30" depart="58.00" departLane="42287830#7_0" departPos="5.10" departSpeed="0.00" departDelay="0.19" arrival="105.00" arrivalLane="4008086#0_0" arrivalPos="37.72" arrivalSpeed="14.13" duration="47.00" routeLength="546.51" waitingTime="0.00" waitingCount="0" stopTime="0.00" timeLoss="9.22" rerouteNo="1" devices="tripinfo_veh30 routing_veh30" vType="veh_passenger" speedFactor="1.08" vaporized=""/>
    <tripinfo id="veh20" depart="39.00" departLane="-3994576#0_0" departPos="5.10" departSpeed="0.00" departDelay="0.46" arrival="150.00" arrivalLane="-4076093#1_0" arrivalPos="42.16" arrivalSpeed="10.60" duration="111.00" routeLength="1332.89" waitingTime="0.00" waitingCount="0" stopTime="0.00" timeLoss="23.62" rerouteNo="1" devices="tripinfo_veh20 routing_veh20" vType="veh_passenger" speedFactor="1.24" vaporized=""/>
    <tripinfo id="veh61" depart="118.00" departLane="45075888#0_0" departPos="5.10" departSpeed="0.00" departDelay="0.45" arrival="155.00" arrivalLane="421621267#7_1" arrivalPos="61.82" arrivalSpeed="10.72" duration="37.00" routeLength="338.39" waitingTime="0.00" waitingCount="0" stopTime="0.00" timeLoss="4.96" rerouteNo="1" devices="tripinfo_veh61 routing_veh61" vType="veh_passenger" speedFactor="1.21" vaporized=""/>
    <tripinfo id="veh29" depart="56.00" departLane="36884541#4_0" departPos="5.10" departSpeed="0.00" departDelay="0.12" arrival="163.00" arrivalLane="3987159#2_0" arrivalPos="17.02" arrivalSpeed="10.55" duration="107.00" routeLength="1076.93" waitingTime="0.00" waitingCount="0" stopTime="0.00" timeLoss="11.33" rerouteNo="1" devices="tripinfo_veh29 routing_veh29" vType="veh_passenger" speedFactor="1.00" vaporized=""/>
    <tripinfo id="veh0" depart="0.00" departLane="3986838_0" departPos="5.10" departSpeed="0.00" departDelay="0.00" arrival="175.00" arrivalLane="-143755556#0_0" arrivalPos="46.63" arrivalSpeed="7.30" duration="175.00" routeLength="1387.65" waitingTime="0.00" waitingCount="0" stopTime="0.00" timeLoss="19.37" rerouteNo="1" devices="tripinfo_veh0 routing_veh0" vType="veh_passenger" speedFactor="0.95" vaporized=""/>
    <tripinfo id="veh7" depart="14.00" departLane="3986931#2_0" departPos="5.10" departSpeed="0.00" departDelay="0.51" arrival="177.00" arrivalLane="3384051#0_1" arrivalPos="60.71" arrivalSpeed="14.01" duration="163.00" routeLength="1736.65" waitingTime="6.00" waitingCount="1" stopTime="0.00" timeLoss="37.60" rerouteNo="1" devices="tripinfo_veh7 routing_veh7" vType="veh_passenger" speedFactor="1.13" vaporized=""/>
    <tripinfo id="veh1" depart="2.00" departLane="-4008131#0_0" departPos="5.10" departSpeed="0.00" departDelay="0.07" arrival="179.00" arrivalLane="-3994572#0_0" arrivalPos="46.62" arrivalSpeed="9.14" duration="177.00" routeLength="2041.32" waitingTime="0.00" waitingCount="0" stopTime="0.00" timeLoss="26.45" rerouteNo="1" devices="tripinfo_veh1 routing_veh1" vType="veh_passenger" speedFactor="1.07" vaporized=""/>
    <tripinfo id="veh25" depart="49.00" departLane="-4008110#1_0" departPos="5.10" departSpeed="0.00" departDelay="0.82" arrival="187.00" arrivalLane="53239201#0_0" arrivalPos="16.61" arrivalSpeed="12.84" duration="138.00" routeLength="1539.76" waitingTime="0.00" waitingCount="0" stopTime="0.00" timeLoss="21.18" rerouteNo="1" devices="tripinfo_veh25 routing_veh25" vType="veh_passenger" speedFactor="0.97" vaporized=""/>
    <tripinfo id="veh37" depart="72.00" departLane="-4008106_0" departPos="5.10" departSpeed="0.00" departDelay="0.70" arrival="187.00" arrivalLane="-3994643#0_0" arrivalPos="71.52" arrivalSpeed="8.90" duration="115.00" routeLength="1112.44" waitingTime="0.00" waitingCount="0" stopTime="0.00" timeLoss="19.79" rerouteNo="1" devices="tripinfo_veh37 routing_veh37" vType="veh_passenger" speedFactor="1.06" vaporized=""/>
    <tripinfo id="veh21" depart="41.00" departLane="-31152413#1_0" departPos="5.10" departSpeed="0.00" departDelay="0.53" arrival="189.00" arrivalLane="-3994585#1_0" arrivalPos="86.29" arrivalSpeed="9.63" duration="148.00" routeLength="1728.11" waitingTime="0.00" waitingCount="0" stopTime="0.00" timeLoss="17.01" rerouteNo="1" devices="tripinfo_veh21 routing_veh21" vType="veh_passenger" speedFactor="1.10" vaporized=""/>
    <tripinfo id="veh38" depart="74.00" departLane="37632868#0_0" departPos="5.10" departSpeed="0.00" departDelay="0.77" arrival="196.00" arrivalLane="-4008086#1_0" arrivalPos="37.72" arrivalSpeed="11.87" duration="122.00" routeLength="1423.58" waitingTime="0.00" waitingCount="0" stopTime="0.00" timeLoss="20.78" rerouteNo="1" devices="tripinfo_veh38 routing_veh38" vType="veh_passenger" speedFactor="1.07" vaporized=""/>
    <tripinfo id="veh6" depart="12.00" departLane="-143755556#12_0" departPos="5.10" departSpeed="0.00" departDelay="0.44" arrival="198.00" arrivalLane="-3987074#6_0" arrivalPos="265.41" arrivalSpeed="14.00" duration="186.00" routeLength="1748.47" waitingTime="5.00" waitingCount="1" stopTime="0.00" timeLoss="31.74" rerouteNo="1" devices="tripinfo_veh6 routing_veh6" vType="veh_passenger" speedFactor="1.03" vaporized=""/>
    <tripinfo id="veh46" depart="89.00" departLane="877688059_0" departPos="0.20" departSpeed="0.00" departDelay="0.36" arrival="209.00" arrivalLane="3128389#4_0" arrivalPos="132.89" arrivalSpeed="8.03" duration="120.00" routeLength="1193.64" waitingTime="0.00" waitingCount="0" stopTime="0.00" timeLoss="22.57" rerouteNo="1" devices="tripinfo_veh46 routing_veh46" vType="veh_passenger" speedFactor="0.99" vaporized=""/>
    <tripinfo id="veh23" depart="45.00" departLane="3986788#0_0" departPos="5.10" departSpeed="0.00" departDelay="0.68" arrival="214.00" arrivalLane="-5236364_0" arrivalPos="24.02" arrivalSpeed="13.94" duration="169.00" routeLength="1671.89" waitingTime="0.00" waitingCount="0" stopTime="0.00" timeLoss="16.34" rerouteNo="1" devices="tripinfo_veh23 routing_veh23" vType="veh_passenger" speedFactor="1.05" vaporized=""/>
    <tripinfo id="veh74" depart="143.00" departLane="-387369933_1" departPos="5.10" departSpeed="0.00" departDelay="0.40" arrival="225.00" arrivalLane="-3994573_0" arrivalPos="16.99" arrivalSpeed="9.79" duration="82.00" routeLength="644.99" waitingTime="0.00" waitingCount="0" stopTime="0.00" timeLoss="13.67" rerouteNo="1" devices="tripinfo_veh74 routing_veh74" vType="veh_passenger" speedFactor="1.00" vaporized=""/>
    <tripinfo id="veh2" depart="4.00" departLane="3994607#1_0" departPos="5.10" departSpeed="0.00" departDelay="0.15" arrival="230.00" arrivalLane="3987076#0_0" arrivalPos="85.88" arrivalSpeed="14.86" duration="226.00" routeLength="2756.15" waitingTime="0.00" waitingCount="0" stopTime="0.00" timeLoss="33.67" rerouteNo="1" devices="tripinfo_veh2 routing_veh2" vType="veh_passenger" speedFactor="1.16" vaporized=""/>
    <tripinfo id="veh71" depart="137.00" departLane="-3987141#0_0" departPos="5.10" departSpeed="0.00" departDelay="0.18" arrival="231.00" arrivalLane="-4235420_0" arrivalPos="51.68" arrivalSpeed="14.75" duration="94.00" routeLength="790.47" waitingTime="2.00" waitingCount="1" stopTime="0.00" timeLoss="26.89" rerouteNo="1" devices="tripinfo_veh71 routing_veh71" vType="veh_passenger" speedFactor="1.09" vaporized=""/>
    <tripinfo id="veh39" depart="76.00" departLane="3875326#5_0" departPos="5.10" departSpeed="0.00" departDelay="0.84" arrival="232.00" arrivalLane="50928338_0" arrivalPos="69.11" arrivalSpeed="13.46" duration="156.00" routeLength="1700.68" waitingTime="0.00" waitingCount="0" stopTime="0.00" timeLoss="26.74" rerouteNo="1" devices="tripinfo_veh39 routing_veh39" vType="veh_passenger" speedFactor="1.06" vaporized=""/>
    <tripinfo id="veh19" depart="37.00" departLane="3993089#2_0" departPos="1.54" departSpeed="0.00" departDelay="0.39" arrival="241.00" arrivalLane="-147495435#2_0" arrivalPos="92.45" arrivalSpeed="7.75" duration="204.00" routeLength="2001.88" waitingTime="10.00" waitingCount="1" stopTime="0.00" timeLoss="34.27" rerouteNo="1" devices="tripinfo_veh19 routing_veh19" vType="veh_passenger" speedFactor="1.00" vaporized=""/>
    <tripinfo id="veh58" depart="112.00" departLane="4008086#0_0" departPos="5.10" departSpeed="0.00" departDelay="0.23" arrival="249.00" arrivalLane="3128389#9_0" arrivalPos="44.48" arrivalSpeed="8.50" duration="137.00" routeLength="1622.01" waitingTime="0.00" waitingCount="0" stopTime="0.00" timeLoss="20.54" rerouteNo="1" devices="tripinfo_veh58 routing_veh58" vType="veh_passenger" speedFactor="1.07" vaporized=""/>
    <tripinfo id="veh11" depart="22.00" departLane="-45075887_0" departPos="5.10" departSpeed="0.00" departDelay="0.80" arrival="252.00" arrivalLane="-3986762#2_0" arrivalPos="36.91" arrivalSpeed="8.28" duration="230.00" routeLength="2140.59" waitingTime="0.00" waitingCount="0" stopTime="0.00" timeLoss="26.41" rerouteNo="1" devices="tripinfo_veh11 routing_veh11" vType="veh_passenger" speedFactor="0.99" vaporized=""/>
    <tripinfo id="veh76" depart="147.00" departLane="-3994578#0_0" departPos="5.10" departSpeed="0.00" departDelay="0.54" arrival="256.00" arrivalLane="-3994566#5_0" arrivalPos="129.15" arrivalSpeed="7.77" duration="109.00" routeLength="867.56" waitingTime="0.00" waitingCount="0" stopTime="0.00" timeLoss="15.40" rerouteNo="1" devices="tripinfo_veh76 routing_veh76" vType="veh_passenger" speedFactor="0.98" vaporized=""/>
    <tripinfo id="veh14" depart="27.00" departLane="4076090_0" departPos="5.10" departSpeed="0.00" departDelay="0.02" arrival="259.00" arrivalLane="3994599#0_0" arrivalPos="139.51" arrivalSpeed="7.52" duration="232.00" routeLength="1945.00" waitingTime="0.00" waitingCount="0" stopTime="0.00" timeLoss="28.89" rerouteNo="1" devices="tripinfo_veh14 routing_veh14" vType="veh_passenger" speedFactor="0.94" vaporized=""/>
    <tripinfo id="veh27" depart="53.00" departLane="-3986931#3_0" departPos="5.10" departSpeed="0.00" departDelay="0.97" arrival="259.00" arrivalLane="3994587#0_0" arrivalPos="132.07" arrivalSpeed="12.54" duration="206.00" routeLength="1826.23" waitingTime="4.00" waitingCount="1" stopTime="0.00" timeLoss="30.96" rerouteNo="1" devices="tripinfo_veh27 routing_veh27" vType="veh_passenger" speedFactor="0.94" vaporized=""/>
    <tripinfo id="veh16" depart="31.00" departLane="-54621757#4_0" departPos="5.10" departSpeed="0.00" departDelay="0.17" arrival="260.00" arrivalLane="362280437#0_0" arrivalPos="115.40" arrivalSpeed="9.49" duration="229.00" routeLength="1771.10" waitingTime="10.00" waitingCount="3" stopTime="0.00" timeLoss="56.44" rerouteNo="1" devices="tripinfo_veh16 routing_veh16" vType="veh_passenger" speedFactor="1.13" vaporized=""/>
    <tripinfo id="veh12" depart="24.00" departLane="54624698#3_0" departPos="5.10" departSpeed="0.00" departDelay="0.88" arrival="261.00" arrivalLane="-43868017_0" arrivalPos="83.83" arrivalSpeed="6.67" duration="237.00" routeLength="1989.66" waitingTime="0.00" waitingCount="0" stopTime="0.00" timeLoss="28.87" rerouteNo="1" devices="tripinfo_veh12 routing_veh12" vType="veh_passenger" speedFactor="0.82" vaporized=""/>
    <tripinfo id="veh94" depart="182.00" departLane="349325745#0_0" departPos="5.10" departSpeed="0.00" departDelay="0.86" arrival="270.00" arrivalLane="-148815866#2_1" arrivalPos="48.24" arrivalSpeed="12.72" duration="88.00" routeLength="813.10" waitingTime="5.00" waitingCount="1" stopTime="0.00" timeLoss="20.88" rerouteNo="1" devices="tripinfo_veh94 routing_veh94" vType="veh_passenger" speedFactor="1.04" vaporized=""/>
    <tripinfo id="veh73" depart="141.00" departLane="136023185#1_1" departPos="0.20" departSpeed="0.00" departDelay="0.32" arrival="272.00" arrivalLane="291493302#0_0" arrivalPos="2.45" arrivalSpeed="14.05" duration="131.00" routeLength="1210.21" waitingTime="0.00" waitingCount="0" stopTime="0.00" timeLoss="16.06" rerouteNo="1" devices="tripinfo_veh73 routing_veh73" vType="veh_passenger" speedFactor="1.08" vaporized=""/>
    <tripinfo id="veh93" depart="180.00" departLane="-3994645_0" departPos="5.10" departSpeed="0.00" departDelay="0.78" arrival="283.00" arrivalLane="5236365#0_0" arrivalPos="14.64" arrivalSpeed="7.39" duration="103.00" routeLength="742.07" waitingTime="0.00" waitingCount="0" stopTime="0.00" timeLoss="19.43" rerouteNo="1" devices="tripinfo_veh93 routing_veh93" vType="veh_passenger" speedFactor="0.87" vaporized=""/>
    <tripinfo id="veh53" depart="103.00" departLane="24493048#2_0" departPos="5.10" departSpeed="0.00" departDelay="0.87" arrival="291.00" arrivalLane="-3987025_0" arrivalPos="130.55" arrivalSpeed="15.23" duration="188.00" routeLength="1816.07" waitingTime="0.00" waitingCount="0" stopTime="0.00" timeLoss="34.06" rerouteNo="1" devices="tripinfo_veh53 routing_veh53" vType="veh_passenger" speedFactor="1.14" vaporized=""/>
    <tripinfo id="veh48" depart="93.00" departLane="-128541167#1_1" departPos="5.10" departSpeed="0.00" departDelay="0.50" arrival="293.00" arrivalLane="3994574#0_0" arrivalPos="79.08" arrivalSpeed="8.29" duration="200.00" routeLength="2033.33" waitingTime="0.00" waitingCount="0" stopTime="0.00" timeLoss="26.85" rerouteNo="1" devices="tripinfo_veh48 routing_veh48" vType="veh_passenger" speedFactor="1.03" vaporized=""/>
    <tripinfo id="veh43" depart="83.00" departLane="-37849665#3_0" departPos="5.10" departSpeed="0.00" departDelay="0.14" arrival="296.00" arrivalLane="3986762#3_0" arrivalPos="39.93" arrivalSpeed="8.23" duration="213.00" routeLength="1604.33" waitingTime="19.00" waitingCount="1" stopTime="0.00" timeLoss="44.78" rerouteNo="1" devices="tripinfo_veh43 routing_veh43" vType="veh_passenger" speedFactor="0.94" vaporized=""/>
    <tripinfo id="veh45" depart="87.00" departLane="-24448524#1_0" departPos="5.10" departSpeed="0.00" departDelay="0.28" arrival="298.00" arrivalLane="-54624701#7_0" arrivalPos="26.01" arrivalSpeed="11.11" duration="211.00" routeLength="2257.90" waitingTime="12.00" waitingCount="1" stopTime="0.00" timeLoss="41.00" rerouteNo="1" devices="tripinfo_veh45 routing_veh45" vType="veh_passenger" speedFactor="1.12" vaporized=""/>
    <tripinfo id="veh47" depart="91.00" departLane="586117612#0_0" departPos="5.10" departSpeed="0.00" departDelay="0.43" arrival="301.00" arrivalLane="4276099#9_1" arrivalPos="14.83" arrivalSpeed="10.18" duration="210.00" routeLength="1537.41" waitingTime="8.00" waitingCount="2" stopTime="0.00" timeLoss="35.07" rerouteNo="1" devices="tripinfo_veh47 routing_veh47" vType="veh_passenger" speedFactor="0.85" vaporized=""/>
    <tripinfo id="veh65" depart="126.00" departLane="-24493053#1_0" departPos="5.10" departSpeed="0.00" departDelay="0.74" arrival="302.00" arrivalLane="3994644#0_0" arrivalPos="168.01" arrivalSpeed="7.57" duration="176.00" routeLength="1195.17" waitingTime="5.00" waitingCount="1" stopTime="0.00" timeLoss="36.33" rerouteNo="1" devices="tripinfo_veh65 routing_veh65" vType="veh_passenger" speedFactor="0.88" vaporized=""/>
    <tripinfo id="veh68" depart="132.00" departLane="-4008106_0" departPos="5.10" departSpeed="0.00" departDelay="0.96" arrival="309.00" arrivalLane="44961507#0_0" arrivalPos="58.25" arrivalSpeed="8.99" duration="177.00" routeLength="1937.33" waitingTime="0.00" waitingCount="0" stopTime="0.00" timeLoss="26.47" rerouteNo="1" devices="tripinfo_veh68 routing_veh68" vType="veh_passenger" speedFactor="1.10" vaporized=""/>
    <tripinfo id="veh31" depart="60.00" departLane="-3994576#4_0" departPos="5.10" departSpeed="0.00" departDelay="0.26" arrival="310.00" arrivalLane="-143760231#0_0" arrivalPos="17.79" arrivalSpeed="7.71" duration="250.00" routeLength="2227.46" waitingTime="0.00" waitingCount="0" stopTime="0.00" timeLoss="25.51" rerouteNo="1" devices="tripinfo_veh31 routing_veh31" vType="veh_passenger" speedFactor="0.94" vaporized=""/>
    <tripinfo id="veh22" depart="43.00" departLane="-3384051#0_1" departPos="5.10" departSpeed="0.00" departDelay="0.60" arrival="316.00" arrivalLane="-4008135#3_0" arrivalPos="25.89" arrivalSpeed="9.01" duration="273.00" routeLength="2631.02" waitingTime="7.00" waitingCount="2" stopTime="0.00" timeLoss="45.14" rerouteNo="1" devices="tripinfo_veh22 routing_veh22" vType="veh_passenger" speedFactor="0.87" vaporized=""/>
    <tripinfo id="veh50" depart="97.00" departLane="-3792618#4_0" departPos="5.10" departSpeed="0.00" departDelay="0.65" arrival="319.00" arrivalLane="135673339_0" arrivalPos="34.22" arrivalSpeed="12.72" duration="222.00" routeLength="2507.58" waitingTime="3.00" waitingCount="1" stopTime="0.00" timeLoss="40.96" rerouteNo="1" devices="tripinfo_veh50 routing_veh50" vType="veh_passenger" speedFactor="1.04" vaporized=""/>
    <tripinfo id="veh95" depart="184.00" departLane="96896690_0" departPos="5.10" departSpeed="0.00" departDelay="0.93" arrival="323.00" arrivalLane="4235416#0_0" arrivalPos="107.60" arrivalSpeed="8.85" duration="139.00" routeLength="1389.32" waitingTime="0.00" waitingCount="0" stopTime="0.00" timeLoss="20.49" rerouteNo="1" devices="tripinfo_veh95 routing_veh95" vType="veh_passenger" speedFactor="1.02" vaporized=""/>
    <tripinfo id="veh35" depart="68.00" departLane="3987016#1_0" departPos="5.10" departSpeed="0.00" departDelay="0.55" arrival="326.00" arrivalLane="-65696403#3_0" arrivalPos="15.68" arrivalSpeed="2.62" duration="258.00" routeLength="2437.75" waitingTime="1.00" waitingCount="1" stopTime="0.00" timeLoss="46.68" rerouteNo="1" devices="tripinfo_veh35 routing_veh35" vType="veh_passenger" speedFactor="1.15" vaporized=""/>
    <tripinfo id="veh51" depart="99.00" departLane="143755556#1_0" departPos="0.96" departSpeed="0.00" departDelay="0.72" arrival="326.00" arrivalLane="54624701#8_0" arrivalPos="35.71" arrivalSpeed="13.03" duration="227.00" routeLength="1842.71" waitingTime="27.00" waitingCount="4" stopTime="0.00" timeLoss="56.84" rerouteNo="1" devices="tripinfo_veh51 routing_veh51" vType="veh_passenger" speedFactor="1.02" vaporized=""/>
    <tripinfo id="veh49" depart="95.00" departLane="-4008110#1_0" departPos="5.10" departSpeed="0.00" departDelay="0.57" arrival="327.00" arrivalLane="3986851_0" arrivalPos="126.86" arrivalSpeed="7.90" duration="232.00" routeLength="2000.84" waitingTime="0.00" waitingCount="0" stopTime="0.00" timeLoss="27.89" rerouteNo="1" devices="tripinfo_veh49 routing_veh49" vType="veh_passenger" speedFactor="0.92" vaporized=""/>
    <tripinfo id="veh4" depart="8.00" departLane="108508527#6_0" departPos="5.10" departSpeed="0.00" departDelay="0.29" arrival="328.00" arrivalLane="-143760220#2_0" arrivalPos="147.25" arrivalSpeed="8.20" duration="320.00" routeLength="2489.33" waitingTime="7.00" waitingCount="2" stopTime="0.00" timeLoss="48.03" rerouteNo="1" devices="tripinfo_veh4 routing_veh4" vType="veh_passenger" speedFactor="0.93" vaporized=""/>
    <tripinfo id="veh3" depart="6.00" departLane="4679011#0_0" departPos="5.10" departSpeed="0.00" departDelay="0.22" arrival="333.00" arrivalLane="-3128391#0_0" arrivalPos="45.11" arrivalSpeed="11.38" duration="327.00" routeLength="3171.60" waitingTime="4.00" waitingCount="1" stopTime="0.00" timeLoss="51.53" rerouteNo="1" devices="tripinfo_veh3 routing_veh3" vType="veh_passenger" speedFactor="0.88" vaporized=""/>
    <tripinfo id="veh55" depart="106.00" departLane="-4196778_0" departPos="5.10" departSpeed="0.00" departDelay="0.01" arrival="333.00" arrivalLane="3986844#1_0" arrivalPos="11.34" arrivalSpeed="7.42" duration="227.00" routeLength="1699.47" waitingTime="6.00" waitingCount="1" stopTime="0.00" timeLoss="34.97" rerouteNo="1" devices="tripinfo_veh55 routing_veh55" vType="veh_passenger" speedFactor="0.91" vaporized=""/>
    <tripinfo id="veh100" depart="193.00" departLane="-54621757#4_0" departPos="5.10" departSpeed="0.00" departDelay="0.29" arrival="334.00" arrivalLane="834716415#2_0" arrivalPos="161.17" arrivalSpeed="14.13" duration="141.00" routeLength="1646.08" waitingTime="14.00" waitingCount="1" stopTime="0.00" timeLoss="29.83" rerouteNo="1" devices="tripinfo_veh100 routing_veh100" vType="veh_passenger" speedFactor="1.11" vaporized=""/>
    <tripinfo id="veh72" depart="139.00" departLane="874663932#3_1" departPos="5.10" departSpeed="0.00" departDelay="0.25" arrival="336.00" arrivalLane="3987008_0" arrivalPos="16.06" arrivalSpeed="12.14" duration="197.00" routeLength="1909.60" waitingTime="16.00" waitingCount="2" stopTime="0.00" timeLoss="51.72" rerouteNo="1" devices="tripinfo_veh72 routing_veh72" vType="veh_passenger" speedFactor="1.04" vaporized=""/>
    <tripinfo id="veh33" depart="64.00" departLane="-3993097#1_0" departPos="5.10" departSpeed="0.00" departDelay="0.41" arrival="337.00" arrivalLane="54327430_0" arrivalPos="37.21" arrivalSpeed="7.25" duration="273.00" routeLength="1767.47" waitingTime="0.00" waitingCount="0" stopTime="0.00" timeLoss="30.07" rerouteNo="1" devices="tripinfo_veh33 routing_veh33" vType="veh_passenger" speedFactor="0.82" vaporized=""/>
    <tripinfo id="veh10" depart="20.00" departLane="4076027#3_0" departPos="5.10" departSpeed="0.00" departDelay="0.73" arrival="338.00" arrivalLane="3993065#2_0" arrivalPos="83.12" arrivalSpeed="8.30" duration="318.00" routeLength="3045.96" waitingTime="18.00" waitingCount="2" stopTime="0.00" timeLoss="57.65" rerouteNo="1" devices="tripinfo_veh10 routing_veh10" vType="veh_passenger" speedFactor="1.00" vaporized=""/>
    <tripinfo id="veh88" depart="170.00" departLane="834716406#1_0" departPos="5.10" departSpeed="0.00" departDelay="0.42" arrival="339.00" arrivalLane="-32543608_0" arrivalPos="56.72" arrivalSpeed="14.42" duration="169.00" routeLength="1792.15" waitingTime="15.00" waitingCount="1" stopTime="0.00" timeLoss="44.40" rerouteNo="1" devices="tripinfo_veh88 routing_veh88" vType="veh_passenger" speedFactor="1.09" vaporized=""/>
    <tripinfo id="veh32" depart="62.00" departLane="-4241930#15_0" departPos="5.10" departSpeed="0.00" departDelay="0.33" arrival="346.00" arrivalLane="-4008114#1_0" arrivalPos="89.97" arrivalSpeed="14.31" duration="284.00" routeLength="2928.23" waitingTime="5.00" waitingCount="2" stopTime="0.00" timeLoss="63.20" rerouteNo="1" devices="tripinfo_veh32 routing_veh32" vType="veh_passenger" speedFactor="1.08" vaporized=""/>
    <tripinfo id="veh101" depart="195.00" departLane="143755556#14_0" departPos="5.10" departSpeed="0.00" departDelay="0.37" arrival="352.00" arrivalLane="11099280#0_0" arrivalPos="141.88" arrivalSpeed="14.58" duration="157.00" routeLength="1282.16" waitingTime="9.00" waitingCount="1" stopTime="0.00" timeLoss="30.31" rerouteNo="1" devices="tripinfo_veh101 routing_veh101" vType="veh_passenger" speedFactor="1.08" vaporized=""/>
    <tripinfo id="veh134" depart="259.00" departLane="3994566#0_0" departPos="5.10" departSpeed="0.00" departDelay="0.77" arrival="356.00" arrivalLane="-3992971_0" arrivalPos="99.91" arrivalSpeed="8.60" duration="97.00" routeLength="970.50" waitingTime="0.00" waitingCount="0" stopTime="0.00" timeLoss="11.39" rerouteNo="1" devices="tripinfo_veh134 routing_veh134" vType="veh_passenger" speedFactor="1.09" vaporized=""/>
    <tripinfo id="veh108" depart="209.00" departLane="24493051#0_0" departPos="5.10" departSpeed="0.00" departDelay="0.88" arrival="357.00" arrivalLane="42737813#3_1" arrivalPos="16.19" arrivalSpeed="9.62" duration="148.00" routeLength="814.62" waitingTime="0.00" waitingCount="0" stopTime="0.00" timeLoss="32.70" rerouteNo="1" devices="tripinfo_veh108 routing_veh108" vType="veh_passenger" speedFactor="1.09" vaporized=""/>
    <tripinfo id="veh8" depart="16.00" departLane="-3994566#5_0" departPos="5.10" departSpeed="0.00" departDelay="0.58" arrival="359.00" arrivalLane="3875409#2_0" arrivalPos="183.17" arrivalSpeed="7.31" duration="343.00" routeLength="3270.51" waitingTime="0.00" waitingCount="0" stopTime="0.00" timeLoss="37.92" rerouteNo="1" devices="tripinfo_veh8 routing_veh8" vType="veh_passenger" speedFactor="0.88" vaporized=""/>
    <tripinfo id="veh13" depart="26.00" departLane="4235426#1_0" departPos="5.10" departSpeed="0.00" departDelay="0.95" arrival="359.00" arrivalLane="3905471#0_1" arrivalPos="17.45" arrivalSpeed="13.46" duration="333.00" routeLength="3732.44" waitingTime="5.00" waitingCount="1" stopTime="0.00" timeLoss="88.63" rerouteNo="1" devices="tripinfo_veh13 routing_veh13" vType="veh_passenger" speedFactor="1.16" vaporized=""/>
    <tripinfo id="veh62" depart="120.00" departLane="-42287830#3_0" departPos="5.10" departSpeed="0.00" departDelay="0.52" arrival="363.00" arrivalLane="-169507718_0" arrivalPos="3.90" arrivalSpeed="5.05" duration="243.00" routeLength="2579.74" waitingTime="3.00" waitingCount="1" stopTime="0.00" timeLoss="32.33" rerouteNo="1" devices="tripinfo_veh62 routing_veh62" vType="veh_passenger" speedFactor="0.97" vaporized=""/>
    <tripinfo id="veh67" depart="130.00" departLane="147495423#0_0" departPos="5.10" departSpeed="0.00" departDelay="0.89" arrival="363.00" arrivalLane="349325744#1_1" arrivalPos="16.38" arrivalSpeed="10.69" duration="233.00" routeLength="1985.27" waitingTime="4.00" waitingCount="1" stopTime="0.00" timeLoss="36.93" rerouteNo="1" devices="tripinfo_veh67 routing_veh67" vType="veh_passenger" speedFactor="1.08" vaporized=""/>
    <tripinfo id="veh111" depart="214.00" departLane="-3994600#1_0" departPos="5.10" departSpeed="0.00" departDelay="0.10" arrival="365.00" arrivalLane="-386808585#8_0" arrivalPos="96.39" arrivalSpeed="7.29" duration="151.00" routeLength="1308.74" waitingTime="0.00" waitingCount="0" stopTime="0.00" timeLoss="18.82" rerouteNo="1" devices="tripinfo_veh111 routing_veh111" vType="veh_passenger" speedFactor="0.89" vaporized=""/>
    <tripinfo id="veh96" depart="185.00" departLane="58535222#0_0" departPos="5.10" departSpeed="0.00" departDelay="0.00" arrival="366.00" arrivalLane="53142667#0_0" arrivalPos="132.34" arrivalSpeed="9.29" duration="181.00" routeLength="2040.08" waitingTime="0.00" waitingCount="0" stopTime="0.00" timeLoss="26.02" rerouteNo="1" devices="tripinfo_veh96 routing_veh96" vType="veh_passenger" speedFactor="1.08" vaporized=""/>
    <tripinfo id="veh63" depart="122.00" departLane="45075887_0" departPos="5.10" departSpeed="0.00" departDelay="0.60" arrival="367.00" arrivalLane="54563658#0_0" arrivalPos="39.29" arrivalSpeed="11.85" duration="245.00" routeLength="2513.53" waitingTime="0.00" waitingCount="0" stopTime="0.00" timeLoss="23.49" rerouteNo="1" devices="tripinfo_veh63 routing_veh63" vType="veh_passenger" speedFactor="0.94" vaporized=""/>
    <tripinfo id="veh28" depart="54.00" departLane="841372001#1_0" departPos="5.10" departSpeed="0.00" departDelay="0.04" arrival="369.00" arrivalLane="3986846#1_0" arrivalPos="75.00" arrivalSpeed="8.04" duration="315.00" routeLength="2552.72" waitingTime="2.00" waitingCount="1" stopTime="0.00" timeLoss="41.23" rerouteNo="1" devices="tripinfo_veh28 routing_veh28" vType="veh_passenger" speedFactor="0.91" vaporized=""/>
    <tripinfo id="veh138" depart="266.00" departLane="-108498337_0" departPos="5.10" departSpeed="0.00" departDelay="0.07" arrival="370.00" arrivalLane="3997872#3_0" arrivalPos="15.48" arrivalSpeed="9.39" duration="104.00" routeLength="1011.80" waitingTime="0.00" waitingCount="0" stopTime="0.00" timeLoss="23.72" rerouteNo="1" devices="tripinfo_veh138 routing_veh138" vType="veh_passenger" speedFactor="1.03" vaporized=""/>
    <tripinfo id="veh79" depart="153.00" departLane="42737813#2_0" departPos="5.10" departSpeed="0.00" departDelay="0.76" arrival="373.00" arrivalLane="-24768267#0_0" arrivalPos="5.01" arrivalSpeed="8.48" duration="220.00" routeLength="2562.18" waitingTime="0.00" waitingCount="0" stopTime="0.00" timeLoss="45.28" rerouteNo="1" devices="tripinfo_veh79 routing_veh79" vType="veh_passenger" speedFactor="1.22" vaporized=""/>
    <tripinfo id="veh102" depart="197.00" departLane="54624698#3_0" departPos="5.10" departSpeed="0.00" departDelay="0.44" arrival="373.00" arrivalLane="874663932#3_0" arrivalPos="16.27" arrivalSpeed="13.59" duration="176.00" routeLength="1970.57" waitingTime="9.00" waitingCount="3" stopTime="0.00" timeLoss="40.93" rerouteNo="1" devices="tripinfo_veh102 routing_veh102" vType="veh_passenger" speedFactor="1.10" vaporized=""/>