<?xml version="1.0" encoding="UTF-8"?>

<!-- generated on Sun Dec 13 13:47:46 2020 by Eclipse SUMO GUI Version 1.8.0
<configuration xmlns:xsi="http://www.w3.org/2001/XMLSchema-instance" xsi:noNamespaceSchemaLocation="http://sumo.dlr.de/xsd/sumoConfiguration.xsd">

    <input>
        <net-file value="/Users/Matteo/PycharmProjects/TrafficEmu/cambridge-osm-simulation/osm.net.xml"/>
        <route-files value="/Users/Matteo/PycharmProjects/TrafficEmu/cambridge-osm-simulation/osm.passenger.trips.xml"/>
        <additional-files value="/Users/Matteo/PycharmProjects/TrafficEmu/cambridge-osm-simulation/osm.poly.xml"/>
    </input>

    <output>
        <tripinfo-output value="/Users/Matteo/PycharmProjects/TrafficEmu/cambridge-osm-simulation/simulation-output-files/tripinfo.xml"/>
        <statistic-output value="/Users/Matteo/PycharmProjects/TrafficEmu/cambridge-osm-simulation/simulation-output-files/statistics_output.xml"/>
    </output>

    <processing>
        <ignore-route-errors value="true"/>
    </processing>

    <routing>
        <device.rerouting.adaptation-steps value="18"/>
        <device.rerouting.adaptation-interval value="10"/>
    </routing>

    <report>
        <verbose value="true"/>
        <duration-log.statistics value="true"/>
        <no-step-log value="true"/>
    </report>

    <traci_server>
        <remote-port value="61656"/>
    </traci_server>

    <random_number>
        <seed value="42"/>
    </random_number>

    <gui_only>
        <gui-settings-file value="/Users/Matteo/PycharmProjects/TrafficEmu/custom_sumo_gui_view.xml"/>
        <quit-on-end value="true"/>
        <start value="true"/>
        <delay value="100"/>
    </gui_only>

</configuration>
-->

<tripinfos xmlns:xsi="http://www.w3.org/2001/XMLSchema-instance" xsi:noNamespaceSchemaLocation="http://sumo.dlr.de/xsd/tripinfo_file.xsd">
    <tripinfo id="veh30" depart="58.00" departLane="42287830#7_0" departPos="5.10" departSpeed="0.00" departDelay="0.19" arrival="105.00" arrivalLane="4008086#0_0" arrivalPos="37.72" arrivalSpeed="14.13" duration="47.00" routeLength="546.51" waitingTime="0.00" waitingCount="0" stopTime="0.00" timeLoss="9.22" rerouteNo="1" devices="tripinfo_veh30 routing_veh30" vType="veh_passenger" speedFactor="1.08" vaporized=""/>
</tripinfos>
