<?xml version="1.0" encoding="UTF-8"?>

<!-- generated on Sun Dec 13 11:20:50 2020 by Eclipse SUMO GUI Version 1.8.0
<configuration xmlns:xsi="http://www.w3.org/2001/XMLSchema-instance" xsi:noNamespaceSchemaLocation="http://sumo.dlr.de/xsd/sumoConfiguration.xsd">

    <input>
        <net-file value="/Users/Matteo/PycharmProjects/TrafficEmu/grid-simulation/grid.net.xml"/>
        <route-files value="/Users/Matteo/PycharmProjects/TrafficEmu/grid-simulation/grid.rou.xml"/>
    </input>

    <output>
        <tripinfo-output value="/Users/Matteo/PycharmProjects/TrafficEmu/grid-simulation/output-files/tripinfo.xml"/>
        <statistic-output value="/Users/Matteo/PycharmProjects/TrafficEmu/grid-simulation/output-files/statistics_output.xml"/>
    </output>

    <traci_server>
        <remote-port value="54845"/>
    </traci_server>

    <random_number>
        <seed value="42"/>
    </random_number>

    <gui_only>
        <gui-settings-file value="/Users/Matteo/PycharmProjects/TrafficEmu/custom_sumo_gui_view.xml"/>
        <quit-on-end value="true"/>
        <start value="true"/>
        <delay value="300"/>
    </gui_only>

</configuration>
-->

<tripinfos xmlns:xsi="http://www.w3.org/2001/XMLSchema-instance" xsi:noNamespaceSchemaLocation="http://sumo.dlr.de/xsd/tripinfo_file.xsd">
    <tripinfo id="vehicle_2" depart="0.00" departLane="e23_0" departPos="3.60" departSpeed="0.00" departDelay="0.00" arrival="24.00" arrivalLane="e67_0" arrivalPos="39.60" arrivalSpeed="10.00" duration="24.00" routeLength="130.42" waitingTime="3.00" waitingCount="2" stopTime="0.00" timeLoss="10.18" rerouteNo="0" devices="tripinfo_vehicle_2" vType="car" speedFactor="1.16" vaporized=""/>
    <tripinfo id="vehicle_0" depart="0.00" departLane="e43_0" departPos="3.60" departSpeed="0.00" departDelay="0.00" arrival="29.00" arrivalLane="e67_0" arrivalPos="39.60" arrivalSpeed="10.00" duration="29.00" routeLength="135.79" waitingTime="5.00" waitingCount="3" stopTime="0.00" timeLoss="14.67" rerouteNo="0" devices="tripinfo_vehicle_0" vType="car" speedFactor="0.95" vaporized=""/>
    <tripinfo id="vehicle_3" depart="2.00" departLane="e23_0" departPos="3.60" departSpeed="0.00" departDelay="2.00" arrival="34.00" arrivalLane="e67_0" arrivalPos="39.60" arrivalSpeed="10.00" duration="32.00" routeLength="130.42" waitingTime="4.00" waitingCount="4" stopTime="0.00" timeLoss="17.89" rerouteNo="0" devices="tripinfo_vehicle_3" vType="car" speedFactor="0.88" vaporized=""/>
    <tripinfo id="vehicle_1" depart="2.00" departLane="e43_0" departPos="3.60" departSpeed="0.00" departDelay="2.00" arrival="39.00" arrivalLane="e67_0" arrivalPos="39.60" arrivalSpeed="10.00" duration="37.00" routeLength="135.79" waitingTime="6.00" waitingCount="5" stopTime="0.00" timeLoss="22.73" rerouteNo="0" devices="tripinfo_vehicle_1" vType="car" speedFactor="1.07" vaporized=""/>
</tripinfos>
