<?xml version="1.0" encoding="UTF-8"?>

<!-- generated on Sat Dec 12 23:40:08 2020 by Eclipse SUMO GUI Version 1.8.0
<configuration xmlns:xsi="http://www.w3.org/2001/XMLSchema-instance" xsi:noNamespaceSchemaLocation="http://sumo.dlr.de/xsd/sumoConfiguration.xsd">

    <input>
        <net-file value="grid-simulation/grid.net.xml"/>
        <route-files value="grid-simulation/grid.rou.xml"/>
    </input>

    <output>
        <tripinfo-output value="grid-simulation/output-files/tripinfo.xml"/>
        <statistic-output value="grid-simulation/output-files/statistics_output.xml"/>
    </output>

    <traci_server>
        <remote-port value="52764"/>
    </traci_server>

    <random_number>
        <seed value="42"/>
    </random_number>

    <gui_only>
        <gui-settings-file value="custom_sumo_gui_view.xml"/>
        <quit-on-end value="true"/>
        <start value="true"/>
        <delay value="300"/>
    </gui_only>

</configuration>
-->

<tripinfos xmlns:xsi="http://www.w3.org/2001/XMLSchema-instance" xsi:noNamespaceSchemaLocation="http://sumo.dlr.de/xsd/tripinfo_file.xsd">
    <tripinfo id="vehicle_2" depart="0.00" departLane="e23_0" departPos="3.60" departSpeed="0.00" departDelay="0.00" arrival="16.00" arrivalLane="e67_0" arrivalPos="39.60" arrivalSpeed="10.00" duration="16.00" routeLength="130.42" waitingTime="0.00" waitingCount="0" stopTime="0.00" timeLoss="2.55" rerouteNo="0" devices="tripinfo_vehicle_2" vType="car" speedFactor="1.16" vaporized=""/>
    <tripinfo id="vehicle_3" depart="2.00" departLane="e23_0" departPos="3.60" departSpeed="0.00" departDelay="2.00" arrival="20.00" arrivalLane="e67_0" arrivalPos="39.60" arrivalSpeed="10.00" duration="18.00" routeLength="130.42" waitingTime="0.00" waitingCount="0" stopTime="0.00" timeLoss="3.07" rerouteNo="0" devices="tripinfo_vehicle_3" vType="car" speedFactor="0.88" vaporized=""/>
    <tripinfo id="vehicle_0" depart="0.00" departLane="e43_0" departPos="3.60" departSpeed="0.00" departDelay="0.00" arrival="22.00" arrivalLane="e67_0" arrivalPos="39.60" arrivalSpeed="10.00" duration="22.00" routeLength="135.79" waitingTime="1.00" waitingCount="1" stopTime="0.00" timeLoss="7.45" rerouteNo="0" devices="tripinfo_vehicle_0" vType="car" speedFactor="0.95" vaporized=""/>
    <tripinfo id="vehicle_1" depart="2.00" departLane="e43_0" departPos="3.60" departSpeed="0.00" departDelay="2.00" arrival="24.00" arrivalLane="e67_0" arrivalPos="39.60" arrivalSpeed="10.00" duration="22.00" routeLength="135.79" waitingTime="0.00" waitingCount="0" stopTime="0.00" timeLoss="7.52" rerouteNo="0" devices="tripinfo_vehicle_1" vType="car" speedFactor="1.07" vaporized=""/>
</tripinfos>
