<?xml version="1.0" encoding="UTF-8"?>

<!-- generated on Sat Dec 12 18:54:01 2020 by Eclipse SUMO GUI Version 1.8.0
<configuration xmlns:xsi="http://www.w3.org/2001/XMLSchema-instance" xsi:noNamespaceSchemaLocation="http://sumo.dlr.de/xsd/sumoConfiguration.xsd">

    <input>
        <net-file value="grid-simulation/grid.net.xml"/>
        <route-files value="grid-simulation/grid.rou.xml"/>
    </input>

    <output>
        <tripinfo-output value="grid-simulation/tripinfo.xml"/>
    </output>

    <traci_server>
        <remote-port value="54805"/>
    </traci_server>

    <gui_only>
        <gui-settings-file value="custom_gui_view.xml"/>
        <start value="true"/>
        <delay value="300"/>
    </gui_only>

</configuration>
-->

<tripinfos xmlns:xsi="http://www.w3.org/2001/XMLSchema-instance" xsi:noNamespaceSchemaLocation="http://sumo.dlr.de/xsd/tripinfo_file.xsd">
</tripinfos>
