<?xml version="1.0" encoding="UTF-8"?>

<!-- generated on Sat Dec 12 18:15:10 2020 by Eclipse SUMO GUI Version 1.8.0
<configuration xmlns:xsi="http://www.w3.org/2001/XMLSchema-instance" xsi:noNamespaceSchemaLocation="http://sumo.dlr.de/xsd/sumoConfiguration.xsd">

    <input>
        <net-file value="grid-simulation/grid.net.xml"/>
        <route-files value="grid-simulation/grid.rou.xml"/>
    </input>

    <output>
        <tripinfo-output value="grid-simulation/tripinfo.xml"/>
    </output>

    <traci_server>
        <remote-port value="51566"/>
    </traci_server>

    <gui_only>
        <start value="true"/>
    </gui_only>

</configuration>
-->

<tripinfos xmlns:xsi="http://www.w3.org/2001/XMLSchema-instance" xsi:noNamespaceSchemaLocation="http://sumo.dlr.de/xsd/tripinfo_file.xsd">
    <tripinfo id="car_0" depart="0.00" departLane="e12_0" departPos="3.60" departSpeed="0.00" departDelay="0.00" arrival="24.00" arrivalLane="e67_0" arrivalPos="39.60" arrivalSpeed="10.00" duration="24.00" routeLength="184.21" waitingTime="0.00" waitingCount="0" stopTime="0.00" timeLoss="3.89" rerouteNo="0" devices="tripinfo_car_0" vType="car" speedFactor="1.06" vaporized=""/>
</tripinfos>
