<?xml version="1.0" encoding="UTF-8"?>

<!-- generated on Sat Dec 12 18:50:39 2020 by Eclipse SUMO GUI Version 1.8.0
<configuration xmlns:xsi="http://www.w3.org/2001/XMLSchema-instance" xsi:noNamespaceSchemaLocation="http://sumo.dlr.de/xsd/sumoConfiguration.xsd">

    <input>
        <net-file value="grid-simulation/grid.net.xml"/>
        <route-files value="grid-simulation/grid.rou.xml"/>
    </input>

    <output>
        <tripinfo-output value="grid-simulation/tripinfo.xml"/>
    </output>

    <traci_server>
        <remote-port value="54588"/>
    </traci_server>

    <gui_only>
        <start value="true"/>
        <delay value="300"/>
    </gui_only>

</configuration>
-->

<tripinfos xmlns:xsi="http://www.w3.org/2001/XMLSchema-instance" xsi:noNamespaceSchemaLocation="http://sumo.dlr.de/xsd/tripinfo_file.xsd">
    <tripinfo id="vehicle_2" depart="0.00" departLane="e23_0" departPos="3.60" departSpeed="0.00" departDelay="0.00" arrival="17.00" arrivalLane="e67_0" arrivalPos="39.60" arrivalSpeed="10.00" duration="17.00" routeLength="130.42" waitingTime="0.00" waitingCount="0" stopTime="0.00" timeLoss="2.50" rerouteNo="0" devices="tripinfo_vehicle_2" vType="car" speedFactor="1.01" vaporized=""/>
    <tripinfo id="vehicle_3" depart="2.00" departLane="e23_0" departPos="3.60" departSpeed="0.00" departDelay="2.00" arrival="19.00" arrivalLane="e67_0" arrivalPos="39.60" arrivalSpeed="10.00" duration="17.00" routeLength="130.42" waitingTime="0.00" waitingCount="0" stopTime="0.00" timeLoss="3.51" rerouteNo="0" devices="tripinfo_vehicle_3" vType="car" speedFactor="1.08" vaporized=""/>
</tripinfos>
