<?xml version="1.0" encoding="UTF-8"?>

<!-- generated on Sun Dec 13 17:06:47 2020 by Eclipse SUMO GUI Version 1.8.0
<configuration xmlns:xsi="http://www.w3.org/2001/XMLSchema-instance" xsi:noNamespaceSchemaLocation="http://sumo.dlr.de/xsd/sumoConfiguration.xsd">

    <input>
        <net-file value="/Users/Matteo/PycharmProjects/TrafficEmu/grid-simulation/grid.net.xml"/>
        <route-files value="/Users/Matteo/PycharmProjects/TrafficEmu/grid-simulation/grid.rou.xml"/>
    </input>

    <output>
        <tripinfo-output value="/Users/Matteo/PycharmProjects/TrafficEmu/grid-simulation/simulation-output-files/tripinfo.xml"/>
        <statistic-output value="/Users/Matteo/PycharmProjects/TrafficEmu/grid-simulation/simulation-output-files/statistics_output.xml"/>
    </output>

    <traci_server>
        <remote-port value="57513"/>
    </traci_server>

    <random_number>
        <seed value="42"/>
    </random_number>

    <gui_only>
        <gui-settings-file value="/Users/Matteo/PycharmProjects/TrafficEmu/custom_sumo_gui_view.xml"/>
        <quit-on-end value="true"/>
        <start value="true"/>
        <delay value="300"/>
    </gui_only>

</configuration>
-->

<tripinfos xmlns:xsi="http://www.w3.org/2001/XMLSchema-instance" xsi:noNamespaceSchemaLocation="http://sumo.dlr.de/xsd/tripinfo_file.xsd">
    <tripinfo id="flow_1.0" depart="0.00" departLane="e1to2_0" departPos="5.10" departSpeed="0.00" departDelay="0.00" arrival="59.00" arrivalLane="e12to13_0" arrivalPos="39.60" arrivalSpeed="13.61" duration="59.00" routeLength="277.13" waitingTime="5.00" waitingCount="5" stopTime="0.00" timeLoss="38.12" rerouteNo="0" devices="tripinfo_flow_1.0" vType="DEFAULT_VEHTYPE" speedFactor="1.08" vaporized=""/>
    <tripinfo id="flow_0.0" depart="0.00" departLane="e16to15_0" departPos="5.10" departSpeed="0.00" departDelay="0.00" arrival="60.00" arrivalLane="e11to10_0" arrivalPos="39.60" arrivalSpeed="12.23" duration="60.00" routeLength="271.97" waitingTime="5.00" waitingCount="5" stopTime="0.00" timeLoss="35.23" rerouteNo="0" devices="tripinfo_flow_0.0" vType="DEFAULT_VEHTYPE" speedFactor="0.95" vaporized=""/>
    <tripinfo id="flow_0.1" depart="3.00" departLane="e16to15_0" departPos="5.10" departSpeed="0.00" departDelay="3.00" arrival="65.00" arrivalLane="e11to10_0" arrivalPos="39.60" arrivalSpeed="13.94" duration="62.00" routeLength="271.97" waitingTime="5.00" waitingCount="5" stopTime="0.00" timeLoss="40.62" rerouteNo="0" devices="tripinfo_flow_0.1" vType="DEFAULT_VEHTYPE" speedFactor="1.07" vaporized=""/>
    <tripinfo id="flow_1.1" depart="3.00" departLane="e1to2_0" departPos="5.10" departSpeed="0.00" departDelay="3.00" arrival="67.00" arrivalLane="e12to13_0" arrivalPos="39.60" arrivalSpeed="13.73" duration="64.00" routeLength="277.13" waitingTime="5.00" waitingCount="5" stopTime="0.00" timeLoss="40.69" rerouteNo="0" devices="tripinfo_flow_1.1" vType="DEFAULT_VEHTYPE" speedFactor="1.03" vaporized=""/>
    <tripinfo id="flow_0.2" depart="6.00" departLane="e16to15_0" departPos="5.10" departSpeed="0.00" departDelay="6.00" arrival="73.00" arrivalLane="e11to10_0" arrivalPos="39.60" arrivalSpeed="13.43" duration="67.00" routeLength="271.97" waitingTime="5.00" waitingCount="5" stopTime="0.00" timeLoss="47.33" rerouteNo="0" devices="tripinfo_flow_0.2" vType="DEFAULT_VEHTYPE" speedFactor="1.16" vaporized=""/>
    <tripinfo id="flow_1.2" depart="6.00" departLane="e1to2_0" departPos="5.10" departSpeed="0.00" departDelay="6.00" arrival="74.00" arrivalLane="e12to13_0" arrivalPos="39.60" arrivalSpeed="13.66" duration="68.00" routeLength="277.13" waitingTime="6.00" waitingCount="6" stopTime="0.00" timeLoss="47.73" rerouteNo="0" devices="tripinfo_flow_1.2" vType="DEFAULT_VEHTYPE" speedFactor="1.13" vaporized=""/>
    <tripinfo id="flow_0.3" depart="9.00" departLane="e16to15_0" departPos="5.10" departSpeed="0.00" departDelay="9.00" arrival="81.00" arrivalLane="e11to10_0" arrivalPos="39.60" arrivalSpeed="11.33" duration="72.00" routeLength="271.97" waitingTime="5.00" waitingCount="5" stopTime="0.00" timeLoss="46.58" rerouteNo="0" devices="tripinfo_flow_0.3" vType="DEFAULT_VEHTYPE" speedFactor="0.88" vaporized=""/>
    <tripinfo id="flow_1.3" depart="9.00" departLane="e1to2_0" departPos="5.10" departSpeed="0.00" departDelay="9.00" arrival="81.00" arrivalLane="e12to13_0" arrivalPos="39.60" arrivalSpeed="11.33" duration="72.00" routeLength="277.13" waitingTime="5.00" waitingCount="5" stopTime="0.00" timeLoss="45.69" rerouteNo="0" devices="tripinfo_flow_1.3" vType="DEFAULT_VEHTYPE" speedFactor="0.88" vaporized=""/>
</tripinfos>
